# vtk DataFile Version 3.0
d-3__ created by libgimli-v1.2.2-34-gf6249d07
ASCII
DATASET UNSTRUCTURED_GRID
POINTS 24 double
0	0	0
1	0	0
2	0	0
3	0	0
0	1	0
1	1	0
2	1	0
3	1	0
0	2	0
1	2	0
2	2	0
3	2	0
0	0	1
1	0	1
2	0	1
3	0	1
0	1	1
1	1	1
2	1	1
3	1	1
0	2	1
1	2	1
2	2	1
3	2	1
CELLS 6 54
8	0	1	5	4	12	13	17	16	
8	1	2	6	5	13	14	18	17	
8	2	3	7	6	14	15	19	18	
8	4	5	9	8	16	17	21	20	
8	5	6	10	9	17	18	22	21	
8	6	7	11	10	18	19	23	22	
CELL_TYPES 6
12
12
12
12
12
12 
CELL_DATA 6
SCALARS Marker double 1
LOOKUP_TABLE default
0
1
2
3
4
5 
CELL_DATA 6
SCALARS Marker1 double 1
LOOKUP_TABLE default
0
1
2
3
4
5 
